!--------------------------------------------------
! S-parameter Generated by TDK Corporation
! Copyright(C) 2018 TDK Corporation.
! All Rights Reserved.
!--------------------------------------------------
! BPF
! Date: 2018/06
! TDK P/N: DEA142450BT-3028A1
!--------------------------------------------------
! Frequency: Start=500.0MHz Stop=8.0GHz
! Port Assignments
!            _____
!           |     |
!   1(In)---|     |---2(Out)
!           |_____|
!--------------------------------------------------
! Terms and conditions regarding TDK Simulation Models
! (1)This simulation model is being provided solely for informational purposes. Please refer to the specifications of the products in terms of detailed characteristics of such products.
! (2)In no event shall TDK Corporation of any of its subsidiaries be liable for any loss or damage arising, directly or indirectly, 
!    From any information contained in this simulation model, including, but not limited to loss or damages arising from any inaccuracies, omissions or errors in connection with such information.
! (3)Any and all copyrights on this simulation model are owned by TDK Corporation.
!    Duplication or redistribution of this simulation model without prior written permission from TDK Corporation is prohibited.
! (4)This simulation model is subject to any modification or change without any prior notice.
! (5)Neither TDK Corporation nor any of its subsidiaries shall make any warranty, express or implied, 
!    Including but not limited to the correctness, implied warranties of merchantability and fitness for a particular purpose with respect to this simulation models.
! (6)The use of this simulation model shall be deemed to have consented to the terms and conditions hereof.
!--------------------------------------------------
!
# MHz S DB R 50
500.0 -0.11515 -35.237 -56.572 69.316 -56.565 69.842 -0.0977639 -14.656
505.0 -0.11638 -35.593 -56.854 69.133 -56.82 69.35 -0.10063 -14.81
510.0 -0.1173 -35.948 -57.139 68.983 -57.089 68.905 -0.10348 -14.963
515.0 -0.11804 -36.298 -57.395 69.141 -57.415 69.001 -0.10664 -15.113
520.0 -0.11894 -36.65 -57.674 69.232 -57.738 69.13 -0.1093 -15.262
525.0 -0.12095 -37.008 -58.011 69.092 -58.022 69.351 -0.11057 -15.406
530.0 -0.12269 -37.365 -58.371 69.031 -58.353 69.549 -0.11182 -15.55
535.0 -0.12419 -37.72 -58.762 69.124 -58.763 69.697 -0.11305 -15.695
540.0 -0.12601 -38.078 -59.127 69.306 -59.161 70.045 -0.11395 -15.843
545.0 -0.12814 -38.44 -59.459 69.585 -59.545 70.619 -0.11451 -15.994
550.0 -0.12992 -38.807 -59.863 69.893 -60.017 70.781 -0.11435 -16.144
555.0 -0.13134 -39.179 -60.322 70.237 -60.562 70.664 -0.11373 -16.293
560.0 -0.13375 -39.553 -61.011 71.045 -61.146 71.426 -0.11376 -16.445
565.0 -0.13624 -39.928 -61.832 72.165 -61.769 72.622 -0.11396 -16.598
570.0 -0.13853 -40.301 -62.519 73.317 -62.475 72.984 -0.11511 -16.752
575.0 -0.14048 -40.674 -63.227 74.639 -63.25 73.253 -0.11633 -16.906
580.0 -0.14264 -41.056 -64.172 75.497 -64.225 75.516 -0.11726 -17.056
585.0 -0.14445 -41.439 -65.224 76.892 -65.305 78.347 -0.11829 -17.208
590.0 -0.14611 -41.823 -66.345 81.174 -66.516 81.742 -0.12036 -17.361
595.0 -0.14729 -42.207 -67.634 86.143 -67.846 85.818 -0.1225 -17.515
600.0 -0.14784 -42.59 -69.348 90.812 -69.261 89.674 -0.125 -17.668
605.0 -0.14893 -42.974 -71.307 98.986 -70.908 97.718 -0.12727 -17.823
610.0 -0.15117 -43.361 -73.25 113.95 -72.456 114.67 -0.1292 -17.979
615.0 -0.15268 -43.745 -74.342 134.01 -73.617 136.23 -0.13044 -18.135
620.0 -0.15347 -44.126 -74.1 154.09 -73.88 161.18 -0.13099 -18.29
625.0 -0.15461 -44.507 -72.609 177.38 -72.161 -179.54 -0.13213 -18.45
630.0 -0.15582 -44.888 -70.222 -165.13 -69.997 -168.66 -0.13358 -18.613
635.0 -0.15768 -45.266 -68.333 -155.6 -68.348 -158.38 -0.13419 -18.773
640.0 -0.15952 -45.644 -66.754 -149.4 -66.841 -150.24 -0.13448 -18.932
645.0 -0.16188 -46.019 -65.138 -146.04 -65.141 -146.18 -0.13446 -19.094
650.0 -0.16399 -46.393 -63.732 -143.79 -63.658 -143.57 -0.13434 -19.257
655.0 -0.16678 -46.765 -62.472 -141.31 -62.355 -141.73 -0.13512 -19.431
660.0 -0.16903 -47.137 -61.352 -139.45 -61.225 -140.2 -0.1359 -19.604
665.0 -0.1697 -47.511 -60.3 -138.15 -60.275 -138.09 -0.1371 -19.77
670.0 -0.17036 -47.888 -59.366 -137.26 -59.405 -136.77 -0.1385 -19.937
675.0 -0.17174 -48.274 -58.543 -136.9 -58.597 -136.75 -0.1406 -20.102
680.0 -0.17295 -48.66 -57.759 -136.42 -57.812 -136.48 -0.14253 -20.264
685.0 -0.17411 -49.045 -56.988 -135.75 -57.02 -135.87 -0.14421 -20.421
690.0 -0.17538 -49.437 -56.323 -135.27 -56.301 -135.26 -0.14621 -20.575
695.0 -0.17675 -49.836 -55.748 -134.96 -55.642 -134.65 -0.14851 -20.726
700.0 -0.17844 -50.236 -55.082 -134.82 -55.013 -134.45 -0.15046 -20.879
705.0 -0.18016 -50.638 -54.395 -134.78 -54.418 -134.46 -0.15217 -21.034
710.0 -0.18246 -51.042 -53.778 -134.68 -53.857 -134.47 -0.15325 -21.192
715.0 -0.18468 -51.445 -53.206 -134.58 -53.328 -134.47 -0.15407 -21.353
720.0 -0.18688 -51.845 -52.733 -134.49 -52.796 -134.25 -0.15559 -21.513
725.0 -0.18872 -52.244 -52.292 -134.4 -52.289 -134.02 -0.15714 -21.672
730.0 -0.19186 -52.633 -51.834 -134.7 -51.769 -134.28 -0.15773 -21.835
735.0 -0.19445 -53.022 -51.384 -134.89 -51.278 -134.46 -0.15829 -21.999
740.0 -0.19564 -53.403 -50.853 -134.56 -50.81 -134.33 -0.15899 -22.168
745.0 -0.19674 -53.782 -50.376 -134.39 -50.364 -134.26 -0.15968 -22.338
750.0 -0.19831 -54.154 -49.992 -134.63 -49.938 -134.31 -0.16046 -22.509
755.0 -0.19955 -54.526 -49.591 -134.82 -49.524 -134.5 -0.16167 -22.68
760.0 -0.20046 -54.897 -49.156 -134.96 -49.116 -134.93 -0.16366 -22.85
765.0 -0.2012 -55.27 -48.754 -135.03 -48.726 -135.13 -0.16519 -23.02
770.0 -0.20176 -55.645 -48.381 -135.02 -48.355 -135.13 -0.16627 -23.19
775.0 -0.20296 -56.027 -48.002 -135.07 -47.991 -135.33 -0.16817 -23.356
780.0 -0.20439 -56.413 -47.626 -135.15 -47.637 -135.62 -0.17055 -23.52
785.0 -0.20592 -56.805 -47.272 -135.44 -47.291 -135.67 -0.17182 -23.677
790.0 -0.20719 -57.198 -46.933 -135.78 -46.957 -135.65 -0.17268 -23.834
795.0 -0.20967 -57.603 -46.603 -135.94 -46.605 -135.91 -0.17424 -23.994
800.0 -0.21193 -58.011 -46.284 -136.08 -46.263 -136.19 -0.17585 -24.155
805.0 -0.21527 -58.415 -45.95 -136.24 -45.936 -136.37 -0.17648 -24.315
810.0 -0.21818 -58.821 -45.629 -136.4 -45.619 -136.54 -0.17705 -24.476
815.0 -0.22064 -59.24 -45.317 -136.6 -45.297 -136.8 -0.17752 -24.645
820.0 -0.22281 -59.658 -45.018 -136.83 -44.994 -137.02 -0.17819 -24.812
825.0 -0.2251 -60.068 -44.733 -137.19 -44.721 -137.17 -0.17963 -24.977
830.0 -0.22683 -60.479 -44.438 -137.47 -44.442 -137.34 -0.18089 -25.145
835.0 -0.22793 -60.891 -44.121 -137.64 -44.148 -137.56 -0.18192 -25.32
840.0 -0.22885 -61.301 -43.825 -137.84 -43.845 -137.79 -0.18333 -25.496
845.0 -0.2296 -61.708 -43.549 -138.07 -43.534 -138.04 -0.18514 -25.673
850.0 -0.23003 -62.115 -43.282 -138.34 -43.256 -138.29 -0.18676 -25.851
855.0 -0.23009 -62.52 -43.025 -138.62 -42.999 -138.55 -0.18823 -26.029
860.0 -0.23034 -62.925 -42.756 -138.7 -42.741 -138.75 -0.19029 -26.205
865.0 -0.23037 -63.329 -42.488 -138.72 -42.488 -138.93 -0.1925 -26.38
870.0 -0.23166 -63.728 -42.229 -139.11 -42.222 -139.15 -0.19435 -26.55
875.0 -0.23277 -64.126 -41.977 -139.53 -41.96 -139.36 -0.19609 -26.719
880.0 -0.23472 -64.532 -41.713 -139.69 -41.71 -139.66 -0.19715 -26.893
885.0 -0.23646 -64.939 -41.459 -139.86 -41.465 -139.93 -0.19814 -27.067
890.0 -0.23945 -65.341 -41.225 -140.15 -41.219 -140.09 -0.19913 -27.244
895.0 -0.24217 -65.744 -40.993 -140.43 -40.975 -140.31 -0.1997 -27.42
900.0 -0.24498 -66.149 -40.756 -140.66 -40.728 -140.68 -0.1992 -27.597
905.0 -0.24746 -66.559 -40.522 -140.89 -40.487 -141.02 -0.19953 -27.776
910.0 -0.24969 -66.975 -40.288 -141.12 -40.254 -141.31 -0.2013 -27.959
915.0 -0.2515 -67.391 -40.054 -141.36 -40.026 -141.5 -0.20264 -28.143
920.0 -0.25289 -67.805 -39.821 -141.61 -39.805 -141.58 -0.20352 -28.328
925.0 -0.25437 -68.227 -39.592 -141.88 -39.586 -141.85 -0.20504 -28.518
930.0 -0.25569 -68.652 -39.369 -142.17 -39.37 -142.21 -0.2069 -28.711
935.0 -0.25698 -69.087 -39.144 -142.49 -39.146 -142.55 -0.20951 -28.897
940.0 -0.25792 -69.526 -38.923 -142.82 -38.924 -142.88 -0.21232 -29.081
945.0 -0.25989 -69.957 -38.706 -143.12 -38.715 -143.11 -0.21456 -29.264
950.0 -0.26159 -70.388 -38.494 -143.4 -38.511 -143.32 -0.21665 -29.446
955.0 -0.2625 -70.818 -38.294 -143.63 -38.305 -143.66 -0.21882 -29.626
960.0 -0.26309 -71.246 -38.098 -143.86 -38.1 -143.97 -0.2208 -29.806
965.0 -0.26446 -71.666 -37.903 -144.2 -37.887 -144.19 -0.22203 -29.986
970.0 -0.26577 -72.084 -37.708 -144.51 -37.681 -144.42 -0.22307 -30.163
975.0 -0.26788 -72.494 -37.502 -144.74 -37.487 -144.73 -0.22375 -30.334
980.0 -0.26975 -72.901 -37.3 -144.97 -37.293 -145.0 -0.22399 -30.508
985.0 -0.27153 -73.303 -37.099 -145.2 -37.096 -145.21 -0.22355 -30.686
990.0 -0.2734 -73.705 -36.903 -145.45 -36.905 -145.47 -0.22336 -30.864
995.0 -0.27537 -74.107 -36.712 -145.72 -36.719 -145.76 -0.22341 -31.041
1000.0 -0.27645 -74.513 -36.521 -146.01 -36.523 -146.07 -0.22331 -31.225
1005.0 -0.27681 -74.922 -36.331 -146.32 -36.324 -146.37 -0.22308 -31.412
1010.0 -0.27825 -75.333 -36.143 -146.6 -36.131 -146.67 -0.22392 -31.601
1015.0 -0.27976 -75.744 -35.959 -146.86 -35.944 -146.96 -0.22506 -31.791
1020.0 -0.28109 -76.171 -35.763 -147.17 -35.755 -147.23 -0.22669 -31.982
1025.0 -0.28197 -76.6 -35.569 -147.48 -35.57 -147.5 -0.22831 -32.172
1030.0 -0.28414 -77.048 -35.39 -147.77 -35.389 -147.82 -0.23118 -32.37
1035.0 -0.28591 -77.497 -35.214 -148.05 -35.21 -148.13 -0.23384 -32.568
1040.0 -0.28802 -77.949 -35.037 -148.39 -35.033 -148.45 -0.23567 -32.764
1045.0 -0.28979 -78.403 -34.862 -148.72 -34.857 -148.75 -0.23762 -32.959
1050.0 -0.29165 -78.864 -34.686 -149.04 -34.679 -149.02 -0.24016 -33.154
1055.0 -0.29384 -79.325 -34.51 -149.35 -34.504 -149.31 -0.24232 -33.349
1060.0 -0.29695 -79.785 -34.333 -149.65 -34.329 -149.66 -0.24394 -33.544
1065.0 -0.2991 -80.244 -34.162 -149.95 -34.159 -149.98 -0.24473 -33.744
1070.0 -0.30029 -80.703 -33.998 -150.25 -33.992 -150.26 -0.24471 -33.95
1075.0 -0.30149 -81.16 -33.829 -150.56 -33.828 -150.59 -0.24511 -34.149
1080.0 -0.30249 -81.615 -33.658 -150.88 -33.667 -150.93 -0.24575 -34.344
1085.0 -0.30318 -82.068 -33.491 -151.16 -33.5 -151.24 -0.24599 -34.545
1090.0 -0.30341 -82.52 -33.326 -151.44 -33.334 -151.53 -0.24602 -34.749
1095.0 -0.30478 -82.969 -33.164 -151.75 -33.17 -151.84 -0.24703 -34.948
1100.0 -0.30585 -83.418 -33.004 -152.07 -33.008 -152.14 -0.2481 -35.147
1105.0 -0.30754 -83.867 -32.838 -152.38 -32.847 -152.46 -0.24982 -35.342
1110.0 -0.30889 -84.317 -32.676 -152.68 -32.689 -152.77 -0.2514 -35.536
1115.0 -0.31115 -84.768 -32.525 -153.02 -32.531 -153.07 -0.25253 -35.731
1120.0 -0.31337 -85.222 -32.374 -153.34 -32.375 -153.36 -0.25398 -35.926
1125.0 -0.31657 -85.679 -32.22 -153.64 -32.218 -153.64 -0.25657 -36.125
1130.0 -0.3198 -86.14 -32.067 -153.95 -32.064 -153.95 -0.25918 -36.322
1135.0 -0.32343 -86.604 -31.915 -154.28 -31.911 -154.32 -0.26189 -36.517
1140.0 -0.32702 -87.069 -31.763 -154.61 -31.756 -154.65 -0.26392 -36.713
1145.0 -0.33058 -87.535 -31.611 -154.94 -31.599 -154.95 -0.26527 -36.911
1150.0 -0.33326 -88.004 -31.458 -155.27 -31.45 -155.26 -0.26744 -37.115
1155.0 -0.33518 -88.474 -31.304 -155.59 -31.306 -155.58 -0.27007 -37.321
1160.0 -0.33742 -88.951 -31.155 -155.91 -31.156 -155.9 -0.27193 -37.531
1165.0 -0.33935 -89.43 -31.008 -156.24 -31.005 -156.21 -0.27345 -37.742
1170.0 -0.34061 -89.912 -30.858 -156.57 -30.855 -156.55 -0.27554 -37.96
1175.0 -0.34124 -90.393 -30.709 -156.9 -30.708 -156.87 -0.2776 -38.179
1180.0 -0.34283 -90.875 -30.561 -157.23 -30.565 -157.23 -0.2789 -38.393
1185.0 -0.34403 -91.357 -30.416 -157.56 -30.424 -157.57 -0.28016 -38.608
1190.0 -0.34628 -91.833 -30.276 -157.9 -30.279 -157.93 -0.28196 -38.824
1195.0 -0.34827 -92.31 -30.137 -158.24 -30.136 -158.28 -0.28358 -39.041
1200.0 -0.35065 -92.792 -29.998 -158.61 -29.998 -158.63 -0.28495 -39.261
1205.0 -0.35296 -93.272 -29.86 -158.96 -29.859 -158.96 -0.28626 -39.476
1210.0 -0.35559 -93.746 -29.721 -159.28 -29.717 -159.27 -0.28754 -39.685
1215.0 -0.35826 -94.219 -29.583 -159.6 -29.582 -159.57 -0.28934 -39.894
1220.0 -0.36098 -94.691 -29.448 -159.93 -29.452 -159.87 -0.29166 -40.102
1225.0 -0.36416 -95.16 -29.314 -160.26 -29.317 -160.22 -0.29354 -40.312
1230.0 -0.3674 -95.628 -29.181 -160.6 -29.179 -160.58 -0.29511 -40.523
1235.0 -0.37084 -96.098 -29.048 -160.92 -29.043 -160.92 -0.29671 -40.736
1240.0 -0.37396 -96.569 -28.917 -161.23 -28.91 -161.25 -0.29824 -40.95
1245.0 -0.37706 -97.045 -28.785 -161.55 -28.776 -161.62 -0.29995 -41.164
1250.0 -0.37964 -97.522 -28.655 -161.87 -28.643 -161.98 -0.30159 -41.378
1255.0 -0.38269 -98.002 -28.522 -162.22 -28.512 -162.32 -0.30398 -41.599
1260.0 -0.38502 -98.485 -28.39 -162.55 -28.383 -162.66 -0.30627 -41.821
1265.0 -0.38597 -98.985 -28.256 -162.93 -28.253 -163.0 -0.30867 -42.041
1270.0 -0.38697 -99.485 -28.124 -163.29 -28.123 -163.34 -0.31088 -42.263
1275.0 -0.38942 -99.985 -27.996 -163.66 -27.994 -163.69 -0.31276 -42.491
1280.0 -0.39189 -100.49 -27.868 -164.02 -27.865 -164.03 -0.31452 -42.718
1285.0 -0.3948 -101.0 -27.74 -164.37 -27.736 -164.35 -0.31617 -42.943
1290.0 -0.39705 -101.52 -27.614 -164.73 -27.61 -164.71 -0.3177 -43.168
1295.0 -0.39863 -102.04 -27.49 -165.12 -27.485 -165.11 -0.31912 -43.392
1300.0 -0.40091 -102.56 -27.368 -165.49 -27.36 -165.48 -0.32033 -43.618
1305.0 -0.40333 -103.08 -27.246 -165.85 -27.234 -165.82 -0.32137 -43.844
1310.0 -0.40614 -103.6 -27.122 -166.21 -27.113 -166.21 -0.3225 -44.07
1315.0 -0.4086 -104.12 -26.998 -166.58 -26.993 -166.59 -0.32358 -44.297
1320.0 -0.412 -104.64 -26.881 -166.94 -26.875 -166.96 -0.32452 -44.521
1325.0 -0.41492 -105.16 -26.765 -167.3 -26.757 -167.3 -0.32533 -44.744
1330.0 -0.41746 -105.68 -26.644 -167.64 -26.639 -167.66 -0.32643 -44.97
1335.0 -0.41947 -106.2 -26.524 -167.99 -26.522 -168.01 -0.32745 -45.196
1340.0 -0.42201 -106.72 -26.407 -168.35 -26.402 -168.39 -0.32872 -45.429
1345.0 -0.42407 -107.25 -26.289 -168.71 -26.283 -168.76 -0.33017 -45.662
1350.0 -0.42615 -107.77 -26.171 -169.07 -26.167 -169.12 -0.3324 -45.897
1355.0 -0.42802 -108.3 -26.054 -169.43 -26.052 -169.49 -0.33438 -46.132
1360.0 -0.43005 -108.84 -25.94 -169.8 -25.937 -169.86 -0.33602 -46.368
1365.0 -0.43191 -109.38 -25.825 -170.19 -25.821 -170.24 -0.33781 -46.609
1370.0 -0.43359 -109.92 -25.71 -170.59 -25.705 -170.61 -0.33972 -46.854
1375.0 -0.43572 -110.47 -25.596 -170.97 -25.591 -170.99 -0.34159 -47.102
1380.0 -0.43781 -111.02 -25.485 -171.35 -25.479 -171.36 -0.34336 -47.35
1385.0 -0.44014 -111.56 -25.376 -171.74 -25.367 -171.76 -0.34526 -47.599
1390.0 -0.44201 -112.11 -25.267 -172.13 -25.256 -172.17 -0.34709 -47.847
1395.0 -0.44501 -112.67 -25.157 -172.54 -25.148 -172.55 -0.34815 -48.092
1400.0 -0.44746 -113.22 -25.048 -172.93 -25.041 -172.91 -0.34895 -48.337
1405.0 -0.45067 -113.78 -24.938 -173.32 -24.932 -173.31 -0.35035 -48.587
1410.0 -0.45318 -114.33 -24.83 -173.7 -24.823 -173.71 -0.35158 -48.838
1415.0 -0.45565 -114.89 -24.722 -174.11 -24.716 -174.11 -0.35256 -49.087
1420.0 -0.45783 -115.45 -24.616 -174.5 -24.609 -174.51 -0.35332 -49.338
1425.0 -0.4608 -116.01 -24.51 -174.9 -24.504 -174.91 -0.35371 -49.593
1430.0 -0.46331 -116.57 -24.405 -175.3 -24.4 -175.3 -0.3545 -49.847
1435.0 -0.4656 -117.14 -24.3 -175.71 -24.296 -175.68 -0.35605 -50.101
1440.0 -0.4682 -117.7 -24.198 -176.11 -24.193 -176.08 -0.35762 -50.359
1445.0 -0.47109 -118.26 -24.097 -176.5 -24.09 -176.51 -0.35918 -50.62
1450.0 -0.47386 -118.83 -23.996 -176.91 -23.988 -176.92 -0.36096 -50.883
1455.0 -0.47621 -119.39 -23.895 -177.32 -23.886 -177.32 -0.36279 -51.146
1460.0 -0.47951 -119.96 -23.795 -177.73 -23.786 -177.73 -0.36505 -51.414
1465.0 -0.48254 -120.54 -23.695 -178.14 -23.686 -178.13 -0.36731 -51.684
1470.0 -0.48547 -121.11 -23.598 -178.56 -23.589 -178.55 -0.37014 -51.954
1475.0 -0.48764 -121.69 -23.501 -178.98 -23.493 -178.97 -0.37288 -52.225
1480.0 -0.49152 -122.26 -23.403 -179.39 -23.396 -179.39 -0.37565 -52.503
1485.0 -0.49459 -122.84 -23.306 -179.79 -23.299 -179.79 -0.37821 -52.78
1490.0 -0.49726 -123.43 -23.212 179.8 -23.206 179.79 -0.38057 -53.054
1495.0 -0.49935 -124.02 -23.117 179.39 -23.112 179.38 -0.38246 -53.328
1500.0 -0.50153 -124.61 -23.024 178.95 -23.016 178.95 -0.38334 -53.6
1505.0 -0.50363 -125.21 -22.929 178.51 -22.922 178.53 -0.3845 -53.875
1510.0 -0.50617 -125.81 -22.834 178.08 -22.83 178.11 -0.38624 -54.157
1515.0 -0.5091 -126.42 -22.741 177.65 -22.737 177.69 -0.38724 -54.438
1520.0 -0.51238 -127.03 -22.651 177.22 -22.643 177.25 -0.38751 -54.718
1525.0 -0.51605 -127.65 -22.561 176.79 -22.553 176.81 -0.3886 -55.002
1530.0 -0.51951 -128.28 -22.47 176.35 -22.466 176.36 -0.39008 -55.287
1535.0 -0.52342 -128.91 -22.381 175.9 -22.378 175.91 -0.3916 -55.569
1540.0 -0.52678 -129.54 -22.293 175.44 -22.29 175.47 -0.39299 -55.85
1545.0 -0.53101 -130.17 -22.207 174.99 -22.203 175.02 -0.3951 -56.138
1550.0 -0.53446 -130.8 -22.121 174.56 -22.118 174.57 -0.39713 -56.428
1555.0 -0.54007 -131.44 -22.038 174.1 -22.035 174.11 -0.4 -56.716
1560.0 -0.5447 -132.08 -21.955 173.66 -21.953 173.67 -0.4027 -57.005
1565.0 -0.54883 -132.72 -21.873 173.21 -21.872 173.21 -0.40546 -57.296
1570.0 -0.55215 -133.36 -21.793 172.77 -21.792 172.76 -0.40819 -57.588
1575.0 -0.5552 -134.0 -21.714 172.32 -21.711 172.31 -0.41123 -57.887
1580.0 -0.55853 -134.64 -21.634 171.89 -21.634 171.86 -0.41459 -58.184
1585.0 -0.56221 -135.29 -21.558 171.42 -21.554 171.4 -0.41716 -58.484
1590.0 -0.56515 -135.94 -21.48 170.97 -21.476 170.94 -0.41944 -58.787
1595.0 -0.56735 -136.59 -21.4 170.52 -21.398 170.48 -0.42143 -59.092
1600.0 -0.57055 -137.25 -21.323 170.05 -21.321 170.01 -0.4234 -59.402
1605.0 -0.57384 -137.92 -21.247 169.58 -21.246 169.54 -0.42527 -59.714
1610.0 -0.57828 -138.6 -21.173 169.1 -21.172 169.08 -0.42688 -60.03
1615.0 -0.58228 -139.27 -21.099 168.62 -21.098 168.62 -0.42823 -60.347
1620.0 -0.58755 -139.95 -21.027 168.14 -21.027 168.13 -0.42934 -60.667
1625.0 -0.59194 -140.64 -20.956 167.66 -20.956 167.65 -0.43018 -60.988
1630.0 -0.59748 -141.34 -20.887 167.15 -20.888 167.16 -0.43224 -61.312
1635.0 -0.60206 -142.03 -20.819 166.64 -20.82 166.68 -0.43411 -61.638
1640.0 -0.60765 -142.73 -20.755 166.16 -20.753 166.18 -0.43632 -61.966
1645.0 -0.61252 -143.42 -20.691 165.67 -20.688 165.69 -0.43853 -62.297
1650.0 -0.61772 -144.13 -20.629 165.16 -20.626 165.18 -0.44125 -62.637
1655.0 -0.62256 -144.84 -20.567 164.66 -20.565 164.69 -0.44421 -62.975
1660.0 -0.62767 -145.55 -20.506 164.17 -20.508 164.21 -0.44778 -63.308
1665.0 -0.63255 -146.27 -20.448 163.68 -20.451 163.72 -0.45094 -63.647
1670.0 -0.63717 -146.98 -20.393 163.18 -20.392 163.21 -0.45367 -63.99
1675.0 -0.64099 -147.7 -20.337 162.69 -20.336 162.71 -0.4567 -64.341
1680.0 -0.64379 -148.42 -20.282 162.19 -20.281 162.21 -0.45977 -64.696
1685.0 -0.64841 -149.15 -20.23 161.68 -20.23 161.71 -0.46307 -65.052
1690.0 -0.65269 -149.88 -20.179 161.18 -20.18 161.21 -0.46623 -65.408
1695.0 -0.65771 -150.62 -20.13 160.67 -20.13 160.69 -0.46975 -65.775
1700.0 -0.66158 -151.37 -20.081 160.16 -20.079 160.17 -0.47302 -66.143
1705.0 -0.66841 -152.11 -20.037 159.63 -20.036 159.65 -0.47472 -66.512
1710.0 -0.67301 -152.86 -19.992 159.11 -19.988 159.11 -0.47546 -66.88
1715.0 -0.67923 -153.63 -19.952 158.58 -19.949 158.58 -0.47795 -67.259
1720.0 -0.68495 -154.4 -19.913 158.04 -19.91 158.06 -0.47999 -67.639
1725.0 -0.69227 -155.17 -19.877 157.5 -19.874 157.52 -0.48147 -68.019
1730.0 -0.69899 -155.95 -19.843 156.96 -19.839 156.97 -0.4832 -68.402
1735.0 -0.70572 -156.75 -19.811 156.42 -19.807 156.43 -0.48558 -68.789
1740.0 -0.71269 -157.55 -19.782 155.88 -19.777 155.89 -0.48802 -69.175
1745.0 -0.71984 -158.36 -19.755 155.33 -19.75 155.34 -0.4905 -69.559
1750.0 -0.72713 -159.18 -19.732 154.77 -19.726 154.8 -0.49299 -69.949
1755.0 -0.73375 -160.01 -19.711 154.22 -19.705 154.26 -0.49532 -70.342
1760.0 -0.74105 -160.85 -19.694 153.66 -19.689 153.7 -0.49864 -70.739
1765.0 -0.74732 -161.69 -19.677 153.12 -19.673 153.13 -0.50201 -71.139
1770.0 -0.75418 -162.55 -19.667 152.57 -19.663 152.58 -0.5053 -71.544
1775.0 -0.75947 -163.4 -19.657 152.03 -19.653 152.03 -0.50821 -71.95
1780.0 -0.76671 -164.27 -19.655 151.47 -19.652 151.47 -0.51245 -72.369
1785.0 -0.77243 -165.14 -19.652 150.91 -19.651 150.91 -0.51625 -72.791
1790.0 -0.77942 -166.01 -19.658 150.36 -19.655 150.34 -0.51974 -73.224
1795.0 -0.78557 -166.89 -19.664 149.8 -19.661 149.78 -0.52294 -73.662
1800.0 -0.79324 -167.77 -19.678 149.24 -19.675 149.21 -0.52628 -74.111
1805.0 -0.8007 -168.67 -19.694 148.67 -19.693 148.65 -0.52951 -74.565
1810.0 -0.80914 -169.58 -19.717 148.09 -19.717 148.08 -0.5329 -75.03
1815.0 -0.81737 -170.49 -19.744 147.53 -19.744 147.52 -0.53619 -75.499
1820.0 -0.82534 -171.42 -19.777 146.96 -19.776 146.96 -0.53936 -75.973
1825.0 -0.83437 -172.35 -19.817 146.41 -19.816 146.4 -0.54269 -76.453
1830.0 -0.84305 -173.3 -19.862 145.85 -19.861 145.84 -0.54586 -76.937
1835.0 -0.85298 -174.26 -19.915 145.29 -19.916 145.29 -0.54932 -77.431
1840.0 -0.86165 -175.24 -19.972 144.73 -19.975 144.74 -0.55245 -77.929
1845.0 -0.87217 -176.24 -20.043 144.19 -20.044 144.2 -0.55596 -78.43
1850.0 -0.88068 -177.24 -20.117 143.64 -20.115 143.65 -0.55896 -78.932
1855.0 -0.89265 -178.27 -20.204 143.12 -20.202 143.12 -0.56269 -79.448
1860.0 -0.90247 -179.3 -20.293 142.58 -20.292 142.58 -0.56593 -79.966
1865.0 -0.91393 179.65 -20.402 142.07 -20.403 142.06 -0.57 -80.496
1870.0 -0.92379 178.59 -20.516 141.56 -20.518 141.55 -0.57379 -81.03
1875.0 -0.93462 177.51 -20.645 141.08 -20.649 141.07 -0.57824 -81.58
1880.0 -0.94469 176.42 -20.785 140.62 -20.79 140.6 -0.58282 -82.136
1885.0 -0.95545 175.31 -20.941 140.18 -20.945 140.16 -0.58812 -82.704
1890.0 -0.96679 174.2 -21.113 139.77 -21.117 139.75 -0.59319 -83.281
1895.0 -0.97863 173.07 -21.302 139.39 -21.307 139.38 -0.598 -83.867
1900.0 -0.99124 171.93 -21.512 139.05 -21.517 139.05 -0.60361 -84.473
1905.0 -1.0029 170.78 -21.736 138.74 -21.742 138.75 -0.60924 -85.093
1910.0 -1.0165 169.6 -21.991 138.53 -21.996 138.54 -0.61509 -85.721
1915.0 -1.0283 168.42 -22.263 138.36 -22.266 138.35 -0.62031 -86.352
1920.0 -1.0434 167.21 -22.573 138.32 -22.578 138.32 -0.62728 -87.004
1925.0 -1.0555 165.99 -22.899 138.31 -22.906 138.31 -0.63353 -87.66
1930.0 -1.0735 164.72 -23.281 138.54 -23.285 138.53 -0.64008 -88.343
1935.0 -1.0884 163.44 -23.685 138.82 -23.686 138.82 -0.64583 -89.029
1940.0 -1.1069 162.13 -24.147 139.42 -24.15 139.43 -0.6533 -89.734
1945.0 -1.1235 160.81 -24.647 140.2 -24.651 140.21 -0.66027 -90.448
1950.0 -1.1431 159.44 -25.216 141.42 -25.219 141.43 -0.66827 -91.183
1955.0 -1.1616 158.05 -25.838 143.04 -25.841 143.05 -0.67647 -91.93
1960.0 -1.1813 156.63 -26.529 145.3 -26.537 145.34 -0.68587 -92.696
1965.0 -1.202 155.19 -27.291 148.4 -27.3 148.45 -0.69572 -93.48
1970.0 -1.2236 153.71 -28.119 152.62 -28.122 152.67 -0.70594 -94.28
1975.0 -1.247 152.2 -28.975 158.48 -28.979 158.55 -0.71826 -95.11
1980.0 -1.269 150.68 -29.795 166.09 -29.803 166.21 -0.73102 -95.957
1985.0 -1.2951 149.11 -30.451 176.33 -30.456 176.47 -0.74587 -96.833
1990.0 -1.3183 147.52 -30.793 -171.76 -30.795 -171.63 -0.76002 -97.72
1995.0 -1.35 145.89 -30.541 -158.17 -30.543 -158.09 -0.78016 -98.657
2000.0 -1.3755 144.24 -29.855 -145.92 -29.857 -145.84 -0.79796 -99.597
2005.0 -1.4122 142.54 -28.663 -135.39 -28.66 -135.33 -0.82021 -100.59
2010.0 -1.4438 140.82 -27.387 -127.45 -27.382 -127.41 -0.84102 -101.59
2015.0 -1.4846 139.05 -25.977 -121.62 -25.975 -121.6 -0.86701 -102.63
2020.0 -1.5228 137.25 -24.658 -117.45 -24.657 -117.43 -0.89274 -103.7
2025.0 -1.5693 135.39 -23.356 -114.64 -23.353 -114.61 -0.92313 -104.81
2030.0 -1.616 133.49 -22.151 -112.71 -22.147 -112.68 -0.95466 -105.94
2035.0 -1.6685 131.53 -21.0 -111.51 -20.995 -111.5 -0.99003 -107.11
2040.0 -1.7257 129.52 -19.92 -110.89 -19.914 -110.89 -1.029 -108.32
2045.0 -1.7869 127.45 -18.903 -110.67 -18.898 -110.68 -1.0713 -109.57
2050.0 -1.8563 125.31 -17.928 -110.89 -17.925 -110.91 -1.1195 -110.85
2055.0 -1.9254 123.12 -17.016 -111.28 -17.016 -111.3 -1.1696 -112.17
2060.0 -2.0091 120.86 -16.129 -112.11 -16.13 -112.11 -1.2301 -113.54
2065.0 -2.0886 118.53 -15.305 -112.93 -15.305 -112.93 -1.2908 -114.94
2070.0 -2.1898 116.14 -14.494 -114.21 -14.492 -114.2 -1.3657 -116.4
2075.0 -2.2815 113.68 -13.74 -115.35 -13.738 -115.34 -1.4383 -117.89
2080.0 -2.4029 111.15 -12.992 -116.98 -12.991 -116.96 -1.5328 -119.44
2085.0 -2.5148 108.55 -12.293 -118.46 -12.292 -118.43 -1.6256 -121.02
2090.0 -2.6549 105.9 -11.607 -120.31 -11.606 -120.28 -1.7397 -122.66
2095.0 -2.7922 103.17 -10.957 -122.08 -10.957 -122.05 -1.8562 -124.34
2100.0 -2.9557 100.38 -10.326 -124.11 -10.327 -124.09 -1.9915 -126.06
2105.0 -3.121 97.511 -9.7245 -126.11 -9.726 -126.08 -2.1326 -127.83
2110.0 -3.3019 94.571 -9.1439 -128.21 -9.1464 -128.18 -2.2874 -129.64
2115.0 -3.5212 91.615 -8.5877 -130.6 -8.5928 -130.58 -2.4704 -131.47
2120.0 -3.7448 88.554 -8.0542 -132.93 -8.0589 -132.9 -2.6604 -133.34
2125.0 -3.9963 85.463 -7.5467 -135.4 -7.5523 -135.37 -2.8721 -135.21
2130.0 -4.2586 82.261 -7.0559 -137.84 -7.0631 -137.81 -3.0962 -137.13
2135.0 -4.5605 79.077 -6.5968 -140.48 -6.6051 -140.45 -3.3489 -139.02
2140.0 -4.8652 75.736 -6.1497 -143.01 -6.1589 -142.98 -3.6107 -140.97
2145.0 -5.2243 72.483 -5.7411 -145.8 -5.7503 -145.76 -3.9092 -142.81
2150.0 -5.579 69.0 -5.3366 -148.4 -5.3458 -148.36 -4.2144 -144.75
2155.0 -5.9987 65.715 -4.9785 -151.29 -4.9867 -151.25 -4.5625 -146.5
2160.0 -6.4162 62.177 -4.6221 -154.01 -4.6295 -153.95 -4.9203 -148.34
2165.0 -6.8925 58.816 -4.3083 -156.89 -4.3148 -156.84 -5.3159 -149.98
2170.0 -7.3724 55.173 -3.9929 -159.63 -3.9986 -159.57 -5.7274 -151.73
2175.0 -7.9114 51.811 -3.7233 -162.51 -3.7281 -162.46 -6.1727 -153.19
2180.0 -8.4718 48.313 -3.464 -165.3 -3.4678 -165.27 -6.6403 -154.64
2185.0 -9.0756 44.866 -3.2278 -168.11 -3.2312 -168.07 -7.138 -155.93
2190.0 -9.7123 41.414 -3.0093 -170.87 -3.0122 -170.83 -7.6604 -157.11
2195.0 -10.394 37.952 -2.8067 -173.61 -2.8088 -173.57 -8.2127 -158.15
2200.0 -11.118 34.612 -2.6266 -176.31 -2.6288 -176.28 -8.7863 -158.96
2205.0 -11.89 31.118 -2.4532 -178.96 -2.4556 -178.93 -9.3905 -159.66
2210.0 -12.715 27.921 -2.3078 178.42 -2.3099 178.45 -10.011 -160.01
2215.0 -13.6 24.398 -2.1613 175.86 -2.1627 175.9 -10.669 -160.25
2220.0 -14.547 21.352 -2.0448 173.35 -2.0463 173.38 -11.328 -160.03
2225.0 -15.579 17.734 -1.9201 170.9 -1.9214 170.92 -12.032 -159.7
2230.0 -16.684 14.79 -1.8299 168.5 -1.8309 168.52 -12.716 -158.76
2235.0 -17.909 11.157 -1.731 166.15 -1.7319 166.17 -13.443 -157.61
2240.0 -19.247 8.0682 -1.6555 163.86 -1.6571 163.89 -14.134 -155.88
2245.0 -20.764 4.2712 -1.5767 161.63 -1.5788 161.65 -14.847 -153.78
2250.0 -22.471 0.61377 -1.5142 159.45 -1.5161 159.47 -15.513 -151.09
2255.0 -24.477 -3.9327 -1.4525 157.33 -1.4544 157.35 -16.164 -147.94
2260.0 -26.891 -9.0873 -1.4008 155.26 -1.4029 155.28 -16.751 -144.31
2265.0 -29.966 -16.412 -1.3533 153.24 -1.3553 153.27 -17.281 -140.25
2270.0 -34.211 -29.456 -1.3106 151.27 -1.3123 151.3 -17.732 -135.8
2275.0 -39.944 -62.988 -1.2733 149.36 -1.2754 149.39 -18.086 -131.14
2280.0 -39.615 -133.14 -1.2358 147.48 -1.2389 147.51 -18.353 -126.29
2285.0 -34.731 -163.55 -1.2073 145.67 -1.2101 145.69 -18.512 -121.54
2290.0 -31.146 -175.04 -1.1763 143.88 -1.1784 143.9 -18.596 -116.79
2295.0 -28.832 177.63 -1.1538 142.15 -1.1567 142.17 -18.585 -112.46
2300.0 -26.973 172.88 -1.126 140.43 -1.1299 140.46 -18.521 -108.23
2305.0 -25.663 168.48 -1.1096 138.79 -1.113 138.82 -18.402 -104.63
2310.0 -24.517 165.06 -1.0881 137.16 -1.091 137.19 -18.251 -101.2
2315.0 -23.637 161.69 -1.0734 135.58 -1.0762 135.61 -18.07 -98.303
2320.0 -22.854 158.78 -1.0556 134.02 -1.0585 134.05 -17.875 -95.636
2325.0 -22.222 155.92 -1.0422 132.51 -1.0454 132.53 -17.674 -93.393
2330.0 -21.662 153.3 -1.0273 131.02 -1.0308 131.04 -17.475 -91.373
2335.0 -21.191 150.76 -1.0142 129.55 -1.018 129.57 -17.285 -89.636
2340.0 -20.778 148.31 -1.0021 128.11 -1.0059 128.14 -17.101 -88.102
2345.0 -20.415 145.91 -0.9912 126.7 -0.99493 126.72 -16.923 -86.756
2350.0 -20.106 143.55 -0.98184 125.32 -0.9853 125.34 -16.758 -85.59
2355.0 -19.825 141.24 -0.97157 123.96 -0.97462 123.97 -16.602 -84.54
2360.0 -19.598 138.95 -0.96329 122.62 -0.96632 122.63 -16.46 -83.648
2365.0 -19.384 136.74 -0.95263 121.3 -0.9558 121.31 -16.323 -82.823
2370.0 -19.228 134.44 -0.94597 120.0 -0.94915 120.02 -16.206 -82.1
2375.0 -19.07 132.19 -0.93612 118.71 -0.93932 118.73 -16.093 -81.407
2380.0 -18.965 129.86 -0.93032 117.47 -0.93275 117.48 -15.993 -80.817
2385.0 -18.856 127.58 -0.92133 116.22 -0.92313 116.23 -15.897 -80.25
2390.0 -18.789 125.26 -0.91486 115.0 -0.91727 115.01 -15.822 -79.755
2395.0 -18.72 122.96 -0.90619 113.79 -0.90906 113.79 -15.751 -79.277
2400.0 -18.676 120.63 -0.89899 112.6 -0.90179 112.6 -15.688 -78.832
2405.0 -18.651 118.31 -0.89351 111.42 -0.89495 111.43 -15.642 -78.397
2410.0 -18.639 115.94 -0.88679 110.26 -0.88797 110.26 -15.601 -77.969
2415.0 -18.636 113.58 -0.87913 109.11 -0.88103 109.11 -15.569 -77.565
2420.0 -18.643 111.24 -0.87066 107.97 -0.87424 107.98 -15.546 -77.183
2425.0 -18.661 108.9 -0.86396 106.85 -0.86793 106.85 -15.529 -76.789
2430.0 -18.68 106.54 -0.85701 105.72 -0.86064 105.73 -15.516 -76.387
2435.0 -18.711 104.17 -0.85196 104.62 -0.85532 104.63 -15.512 -75.988
2440.0 -18.735 101.77 -0.84546 103.53 -0.84857 103.53 -15.511 -75.591
2445.0 -18.781 99.365 -0.83976 102.45 -0.84353 102.46 -15.514 -75.187
2450.0 -18.817 96.932 -0.83156 101.37 -0.83613 101.38 -15.517 -74.783
2455.0 -18.87 94.469 -0.82784 100.31 -0.83208 100.33 -15.525 -74.392
2460.0 -18.912 91.978 -0.82175 99.246 -0.82567 99.273 -15.534 -73.998
2465.0 -18.978 89.443 -0.81706 98.204 -0.82049 98.237 -15.549 -73.592
2470.0 -19.036 86.864 -0.81103 97.167 -0.8141 97.205 -15.565 -73.189
2475.0 -19.103 84.216 -0.80674 96.142 -0.80978 96.179 -15.586 -72.799
2480.0 -19.169 81.545 -0.80183 95.123 -0.80432 95.159 -15.61 -72.402
2485.0 -19.248 78.848 -0.79779 94.114 -0.79888 94.149 -15.636 -71.993
2490.0 -19.33 76.106 -0.79265 93.109 -0.79345 93.147 -15.668 -71.548
2495.0 -19.416 73.309 -0.78643 92.11 -0.78806 92.151 -15.706 -71.067